s 0.000000000 _0_ AGT  --- 0 cbr 1000 [0 0 0 0] ------- [0:0 18:0 32 0] [0] 0 0
r 0.000000000 _0_ RTR  --- 0 cbr 1000 [0 0 0 0] ------- [0:0 18:0 32 0] [0] 0 0
v 0 eval {set sim_annotation {MOBILE NODE MOVEMENTS}}
s 0.000000000 _0_ RTR  --- 0 AODV 48 [0 0 0 0] ------- [0:255 -1:255 30 0] [0x2 1 1 [18 0] [0 4]] (REQUEST)
s 0.000195000 _0_ MAC  --- 0 AODV 106 [0 ffffffff 0 800] ------- [0:255 -1:255 30 0] [0x2 1 1 [18 0] [0 4]] (REQUEST)
r 0.001043520 _12_ MAC  --- 0 AODV 48 [0 ffffffff 0 800] ------- [0:255 -1:255 30 0] [0x2 1 1 [18 0] [0 4]] (REQUEST)
r 0.001043527 _15_ MAC  --- 0 AODV 48 [0 ffffffff 0 800] ------- [0:255 -1:255 30 0] [0x2 1 1 [18 0] [0 4]] (REQUEST)
r 0.001043533 _18_ MAC  --- 0 AODV 48 [0 ffffffff 0 800] ------- [0:255 -1:255 30 0] [0x2 1 1 [18 0] [0 4]] (REQUEST)
r 0.001043555 _14_ MAC  --- 0 AODV 48 [0 ffffffff 0 800] ------- [0:255 -1:255 30 0] [0x2 1 1 [18 0] [0 4]] (REQUEST)
r 0.001043717 _17_ MAC  --- 0 AODV 48 [0 ffffffff 0 800] ------- [0:255 -1:255 30 0] [0x2 1 1 [18 0] [0 4]] (REQUEST)
r 0.001043737 _9_ MAC  --- 0 AODV 48 [0 ffffffff 0 800] ------- [0:255 -1:255 30 0] [0x2 1 1 [18 0] [0 4]] (REQUEST)
r 0.001043762 _19_ MAC  --- 0 AODV 48 [0 ffffffff 0 800] ------- [0:255 -1:255 30 0] [0x2 1 1 [18 0] [0 4]] (REQUEST)
r 0.001043786 _8_ MAC  --- 0 AODV 48 [0 ffffffff 0 800] ------- [0:255 -1:255 30 0] [0x2 1 1 [18 0] [0 4]] (REQUEST)
r 0.001043797 _7_ MAC  --- 0 AODV 48 [0 ffffffff 0 800] ------- [0:255 -1:255 30 0] [0x2 1 1 [18 0] [0 4]] (REQUEST)
r 0.001043865 _22_ MAC  --- 0 AODV 48 [0 ffffffff 0 800] ------- [0:255 -1:255 30 0] [0x2 1 1 [18 0] [0 4]] (REQUEST)
r 0.001043927 _16_ MAC  --- 0 AODV 48 [0 ffffffff 0 800] ------- [0:255 -1:255 30 0] [0x2 1 1 [18 0] [0 4]] (REQUEST)
r 0.001044047 _4_ MAC  --- 0 AODV 48 [0 ffffffff 0 800] ------- [0:255 -1:255 30 0] [0x2 1 1 [18 0] [0 4]] (REQUEST)
r 0.001044112 _10_ MAC  --- 0 AODV 48 [0 ffffffff 0 800] ------- [0:255 -1:255 30 0] [0x2 1 1 [18 0] [0 4]] (REQUEST)
r 0.001044128 _11_ MAC  --- 0 AODV 48 [0 ffffffff 0 800] ------- [0:255 -1:255 30 0] [0x2 1 1 [18 0] [0 4]] (REQUEST)
r 0.001044182 _13_ MAC  --- 0 AODV 48 [0 ffffffff 0 800] ------- [0:255 -1:255 30 0] [0x2 1 1 [18 0] [0 4]] (REQUEST)
r 0.001044207 _6_ MAC  --- 0 AODV 48 [0 ffffffff 0 800] ------- [0:255 -1:255 30 0] [0x2 1 1 [18 0] [0 4]] (REQUEST)
r 0.001044278 _5_ MAC  --- 0 AODV 48 [0 ffffffff 0 800] ------- [0:255 -1:255 30 0] [0x2 1 1 [18 0] [0 4]] (REQUEST)
r 0.001044330 _3_ MAC  --- 0 AODV 48 [0 ffffffff 0 800] ------- [0:255 -1:255 30 0] [0x2 1 1 [18 0] [0 4]] (REQUEST)
r 0.001044435 _20_ MAC  --- 0 AODV 48 [0 ffffffff 0 800] ------- [0:255 -1:255 30 0] [0x2 1 1 [18 0] [0 4]] (REQUEST)
r 0.001044491 _21_ MAC  --- 0 AODV 48 [0 ffffffff 0 800] ------- [0:255 -1:255 30 0] [0x2 1 1 [18 0] [0 4]] (REQUEST)
r 0.001044591 _2_ MAC  --- 0 AODV 48 [0 ffffffff 0 800] ------- [0:255 -1:255 30 0] [0x2 1 1 [18 0] [0 4]] (REQUEST)
r 0.001046110 _1_ MAC  --- 0 AODV 48 [0 ffffffff 0 800] ------- [0:255 -1:255 30 0] [0x2 1 1 [18 0] [0 4]] (REQUEST)
r 0.001068520 _12_ RTR  --- 0 AODV 48 [0 ffffffff 0 800] ------- [0:255 -1:255 30 0] [0x2 1 1 [18 0] [0 4]] (REQUEST)
r 0.001068527 _15_ RTR  --- 0 AODV 48 [0 ffffffff 0 800] ------- [0:255 -1:255 30 0] [0x2 1 1 [18 0] [0 4]] (REQUEST)
r 0.001068533 _18_ RTR  --- 0 AODV 48 [0 ffffffff 0 800] ------- [0:255 -1:255 30 0] [0x2 1 1 [18 0] [0 4]] (REQUEST)
s 0.001068533 _18_ RTR  --- 0 AODV 44 [0 0 0 0] ------- [18:255 0:255 30 0] [0x4 1 [18 4] 10.000000] (REPLY)
r 0.001068555 _14_ RTR  --- 0 AODV 48 [0 ffffffff 0 800] ------- [0:255 -1:255 30 0] [0x2 1 1 [18 0] [0 4]] (REQUEST)
r 0.001068717 _17_ RTR  --- 0 AODV 48 [0 ffffffff 0 800] ------- [0:255 -1:255 30 0] [0x2 1 1 [18 0] [0 4]] (REQUEST)
r 0.001068737 _9_ RTR  --- 0 AODV 48 [0 ffffffff 0 800] ------- [0:255 -1:255 30 0] [0x2 1 1 [18 0] [0 4]] (REQUEST)
r 0.001068762 _19_ RTR  --- 0 AODV 48 [0 ffffffff 0 800] ------- [0:255 -1:255 30 0] [0x2 1 1 [18 0] [0 4]] (REQUEST)
r 0.001068786 _8_ RTR  --- 0 AODV 48 [0 ffffffff 0 800] ------- [0:255 -1:255 30 0] [0x2 1 1 [18 0] [0 4]] (REQUEST)
r 0.001068797 _7_ RTR  --- 0 AODV 48 [0 ffffffff 0 800] ------- [0:255 -1:255 30 0] [0x2 1 1 [18 0] [0 4]] (REQUEST)
r 0.001068865 _22_ RTR  --- 0 AODV 48 [0 ffffffff 0 800] ------- [0:255 -1:255 30 0] [0x2 1 1 [18 0] [0 4]] (REQUEST)
r 0.001068927 _16_ RTR  --- 0 AODV 48 [0 ffffffff 0 800] ------- [0:255 -1:255 30 0] [0x2 1 1 [18 0] [0 4]] (REQUEST)
r 0.001069047 _4_ RTR  --- 0 AODV 48 [0 ffffffff 0 800] ------- [0:255 -1:255 30 0] [0x2 1 1 [18 0] [0 4]] (REQUEST)
r 0.001069112 _10_ RTR  --- 0 AODV 48 [0 ffffffff 0 800] ------- [0:255 -1:255 30 0] [0x2 1 1 [18 0] [0 4]] (REQUEST)
r 0.001069128 _11_ RTR  --- 0 AODV 48 [0 ffffffff 0 800] ------- [0:255 -1:255 30 0] [0x2 1 1 [18 0] [0 4]] (REQUEST)
r 0.001069182 _13_ RTR  --- 0 AODV 48 [0 ffffffff 0 800] ------- [0:255 -1:255 30 0] [0x2 1 1 [18 0] [0 4]] (REQUEST)
r 0.001069207 _6_ RTR  --- 0 AODV 48 [0 ffffffff 0 800] ------- [0:255 -1:255 30 0] [0x2 1 1 [18 0] [0 4]] (REQUEST)
r 0.001069278 _5_ RTR  --- 0 AODV 48 [0 ffffffff 0 800] ------- [0:255 -1:255 30 0] [0x2 1 1 [18 0] [0 4]] (REQUEST)
r 0.001069330 _3_ RTR  --- 0 AODV 48 [0 ffffffff 0 800] ------- [0:255 -1:255 30 0] [0x2 1 1 [18 0] [0 4]] (REQUEST)
r 0.001069435 _20_ RTR  --- 0 AODV 48 [0 ffffffff 0 800] ------- [0:255 -1:255 30 0] [0x2 1 1 [18 0] [0 4]] (REQUEST)
r 0.001069491 _21_ RTR  --- 0 AODV 48 [0 ffffffff 0 800] ------- [0:255 -1:255 30 0] [0x2 1 1 [18 0] [0 4]] (REQUEST)
r 0.001069591 _2_ RTR  --- 0 AODV 48 [0 ffffffff 0 800] ------- [0:255 -1:255 30 0] [0x2 1 1 [18 0] [0 4]] (REQUEST)
r 0.001071110 _1_ RTR  --- 0 AODV 48 [0 ffffffff 0 800] ------- [0:255 -1:255 30 0] [0x2 1 1 [18 0] [0 4]] (REQUEST)
s 0.001143533 _18_ MAC  --- 0 ARP 86 [0 ffffffff 12 806] ------- [REQUEST 18/18 0/0]
s 0.001343793 _10_ RTR  --- 0 AODV 48 [0 ffffffff 0 800] ------- [10:255 -1:255 29 0] [0x2 2 1 [18 0] [0 4]] (REQUEST)
s 0.001487373 _11_ RTR  --- 0 AODV 48 [0 ffffffff 0 800] ------- [11:255 -1:255 29 0] [0x2 2 1 [18 0] [0 4]] (REQUEST)
s 0.001499609 _8_ RTR  --- 0 AODV 48 [0 ffffffff 0 800] ------- [8:255 -1:255 29 0] [0x2 2 1 [18 0] [0 4]] (REQUEST)
r 0.001831827 _17_ MAC  --- 0 ARP 28 [0 ffffffff 12 806] ------- [REQUEST 18/18 0/0]
r 0.001832066 _0_ MAC  --- 0 ARP 28 [0 ffffffff 12 806] ------- [REQUEST 18/18 0/0]
r 0.001832097 _15_ MAC  --- 0 ARP 28 [0 ffffffff 12 806] ------- [REQUEST 18/18 0/0]
r 0.001832264 _16_ MAC  --- 0 ARP 28 [0 ffffffff 12 806] ------- [REQUEST 18/18 0/0]
r 0.001832289 _22_ MAC  --- 0 ARP 28 [0 ffffffff 12 806] ------- [REQUEST 18/18 0/0]
r 0.001832471 _19_ MAC  --- 0 ARP 28 [0 ffffffff 12 806] ------- [REQUEST 18/18 0/0]
r 0.001832491 _12_ MAC  --- 0 ARP 28 [0 ffffffff 12 806] ------- [REQUEST 18/18 0/0]
r 0.001832507 _14_ MAC  --- 0 ARP 28 [0 ffffffff 12 806] ------- [REQUEST 18/18 0/0]
r 0.001832522 _9_ MAC  --- 0 ARP 28 [0 ffffffff 12 806] ------- [REQUEST 18/18 0/0]
r 0.001832731 _10_ MAC  --- 0 ARP 28 [0 ffffffff 12 806] ------- [REQUEST 18/18 0/0]
r 0.001832846 _7_ MAC  --- 0 ARP 28 [0 ffffffff 12 806] ------- [REQUEST 18/18 0/0]
r 0.001832849 _8_ MAC  --- 0 ARP 28 [0 ffffffff 12 806] ------- [REQUEST 18/18 0/0]
r 0.001832984 _4_ MAC  --- 0 ARP 28 [0 ffffffff 12 806] ------- [REQUEST 18/18 0/0]
r 0.001833003 _21_ MAC  --- 0 ARP 28 [0 ffffffff 12 806] ------- [REQUEST 18/18 0/0]
r 0.001833076 _13_ MAC  --- 0 ARP 28 [0 ffffffff 12 806] ------- [REQUEST 18/18 0/0]
r 0.001833146 _11_ MAC  --- 0 ARP 28 [0 ffffffff 12 806] ------- [REQUEST 18/18 0/0]
r 0.001833156 _20_ MAC  --- 0 ARP 28 [0 ffffffff 12 806] ------- [REQUEST 18/18 0/0]
r 0.001833162 _3_ MAC  --- 0 ARP 28 [0 ffffffff 12 806] ------- [REQUEST 18/18 0/0]
r 0.001833272 _6_ MAC  --- 0 ARP 28 [0 ffffffff 12 806] ------- [REQUEST 18/18 0/0]
r 0.001833306 _5_ MAC  --- 0 ARP 28 [0 ffffffff 12 806] ------- [REQUEST 18/18 0/0]
r 0.001833539 _2_ MAC  --- 0 ARP 28 [0 ffffffff 12 806] ------- [REQUEST 18/18 0/0]
r 0.001834297 _1_ MAC  --- 0 ARP 28 [0 ffffffff 12 806] ------- [REQUEST 18/18 0/0]
s 0.001938679 _1_ RTR  --- 0 AODV 48 [0 ffffffff 0 800] ------- [1:255 -1:255 29 0] [0x2 2 1 [18 0] [0 4]] (REQUEST)
s 0.002162731 _10_ MAC  --- 0 AODV 106 [0 ffffffff a 800] ------- [10:255 -1:255 29 0] [0x2 2 1 [18 0] [0 4]] (REQUEST)
r 0.003011175 _9_ MAC  --- 0 AODV 48 [0 ffffffff a 800] ------- [10:255 -1:255 29 0] [0x2 2 1 [18 0] [0 4]] (REQUEST)
r 0.003011350 _16_ MAC  --- 0 AODV 48 [0 ffffffff a 800] ------- [10:255 -1:255 29 0] [0x2 2 1 [18 0] [0 4]] (REQUEST)
r 0.003011381 _15_ MAC  --- 0 AODV 48 [0 ffffffff a 800] ------- [10:255 -1:255 29 0] [0x2 2 1 [18 0] [0 4]] (REQUEST)
r 0.003011382 _3_ MAC  --- 0 AODV 48 [0 ffffffff a 800] ------- [10:255 -1:255 29 0] [0x2 2 1 [18 0] [0 4]] (REQUEST)
r 0.003011515 _14_ MAC  --- 0 AODV 48 [0 ffffffff a 800] ------- [10:255 -1:255 29 0] [0x2 2 1 [18 0] [0 4]] (REQUEST)
r 0.003011555 _4_ MAC  --- 0 AODV 48 [0 ffffffff a 800] ------- [10:255 -1:255 29 0] [0x2 2 1 [18 0] [0 4]] (REQUEST)
r 0.003011761 _17_ MAC  --- 0 AODV 48 [0 ffffffff a 800] ------- [10:255 -1:255 29 0] [0x2 2 1 [18 0] [0 4]] (REQUEST)
r 0.003011843 _0_ MAC  --- 0 AODV 48 [0 ffffffff a 800] ------- [10:255 -1:255 29 0] [0x2 2 1 [18 0] [0 4]] (REQUEST)
r 0.003011924 _7_ MAC  --- 0 AODV 48 [0 ffffffff a 800] ------- [10:255 -1:255 29 0] [0x2 2 1 [18 0] [0 4]] (REQUEST)
r 0.003011928 _18_ MAC  --- 0 AODV 48 [0 ffffffff a 800] ------- [10:255 -1:255 29 0] [0x2 2 1 [18 0] [0 4]] (REQUEST)
r 0.003011948 _2_ MAC  --- 0 AODV 48 [0 ffffffff a 800] ------- [10:255 -1:255 29 0] [0x2 2 1 [18 0] [0 4]] (REQUEST)
r 0.003012083 _5_ MAC  --- 0 AODV 48 [0 ffffffff a 800] ------- [10:255 -1:255 29 0] [0x2 2 1 [18 0] [0 4]] (REQUEST)
r 0.003012217 _8_ MAC  --- 0 AODV 48 [0 ffffffff a 800] ------- [10:255 -1:255 29 0] [0x2 2 1 [18 0] [0 4]] (REQUEST)
r 0.003012292 _12_ MAC  --- 0 AODV 48 [0 ffffffff a 800] ------- [10:255 -1:255 29 0] [0x2 2 1 [18 0] [0 4]] (REQUEST)
r 0.003012369 _6_ MAC  --- 0 AODV 48 [0 ffffffff a 800] ------- [10:255 -1:255 29 0] [0x2 2 1 [18 0] [0 4]] (REQUEST)
r 0.003012604 _19_ MAC  --- 0 AODV 48 [0 ffffffff a 800] ------- [10:255 -1:255 29 0] [0x2 2 1 [18 0] [0 4]] (REQUEST)
r 0.003012621 _22_ MAC  --- 0 AODV 48 [0 ffffffff a 800] ------- [10:255 -1:255 29 0] [0x2 2 1 [18 0] [0 4]] (REQUEST)
r 0.003012707 _11_ MAC  --- 0 AODV 48 [0 ffffffff a 800] ------- [10:255 -1:255 29 0] [0x2 2 1 [18 0] [0 4]] (REQUEST)
r 0.003012948 _13_ MAC  --- 0 AODV 48 [0 ffffffff a 800] ------- [10:255 -1:255 29 0] [0x2 2 1 [18 0] [0 4]] (REQUEST)
r 0.003013273 _20_ MAC  --- 0 AODV 48 [0 ffffffff a 800] ------- [10:255 -1:255 29 0] [0x2 2 1 [18 0] [0 4]] (REQUEST)
r 0.003013307 _21_ MAC  --- 0 AODV 48 [0 ffffffff a 800] ------- [10:255 -1:255 29 0] [0x2 2 1 [18 0] [0 4]] (REQUEST)
r 0.003014666 _1_ MAC  --- 0 AODV 48 [0 ffffffff a 800] ------- [10:255 -1:255 29 0] [0x2 2 1 [18 0] [0 4]] (REQUEST)
s 0.003024525 _7_ RTR  --- 0 AODV 48 [0 ffffffff 0 800] ------- [7:255 -1:255 29 0] [0x2 2 1 [18 0] [0 4]] (REQUEST)
r 0.003036175 _9_ RTR  --- 0 AODV 48 [0 ffffffff a 800] ------- [10:255 -1:255 29 0] [0x2 2 1 [18 0] [0 4]] (REQUEST)
r 0.003036350 _16_ RTR  --- 0 AODV 48 [0 ffffffff a 800] ------- [10:255 -1:255 29 0] [0x2 2 1 [18 0] [0 4]] (REQUEST)
r 0.003036381 _15_ RTR  --- 0 AODV 48 [0 ffffffff a 800] ------- [10:255 -1:255 29 0] [0x2 2 1 [18 0] [0 4]] (REQUEST)
r 0.003036382 _3_ RTR  --- 0 AODV 48 [0 ffffffff a 800] ------- [10:255 -1:255 29 0] [0x2 2 1 [18 0] [0 4]] (REQUEST)
r 0.003036515 _14_ RTR  --- 0 AODV 48 [0 ffffffff a 800] ------- [10:255 -1:255 29 0] [0x2 2 1 [18 0] [0 4]] (REQUEST)
r 0.003036555 _4_ RTR  --- 0 AODV 48 [0 ffffffff a 800] ------- [10:255 -1:255 29 0] [0x2 2 1 [18 0] [0 4]] (REQUEST)
r 0.003036761 _17_ RTR  --- 0 AODV 48 [0 ffffffff a 800] ------- [10:255 -1:255 29 0] [0x2 2 1 [18 0] [0 4]] (REQUEST)
r 0.003036843 _0_ RTR  --- 0 AODV 48 [0 ffffffff a 800] ------- [10:255 -1:255 29 0] [0x2 2 1 [18 0] [0 4]] (REQUEST)
r 0.003036924 _7_ RTR  --- 0 AODV 48 [0 ffffffff a 800] ------- [10:255 -1:255 29 0] [0x2 2 1 [18 0] [0 4]] (REQUEST)
r 0.003036928 _18_ RTR  --- 0 AODV 48 [0 ffffffff a 800] ------- [10:255 -1:255 29 0] [0x2 2 1 [18 0] [0 4]] (REQUEST)
r 0.003036948 _2_ RTR  --- 0 AODV 48 [0 ffffffff a 800] ------- [10:255 -1:255 29 0] [0x2 2 1 [18 0] [0 4]] (REQUEST)
r 0.003037083 _5_ RTR  --- 0 AODV 48 [0 ffffffff a 800] ------- [10:255 -1:255 29 0] [0x2 2 1 [18 0] [0 4]] (REQUEST)
r 0.003037217 _8_ RTR  --- 0 AODV 48 [0 ffffffff a 800] ------- [10:255 -1:255 29 0] [0x2 2 1 [18 0] [0 4]] (REQUEST)
r 0.003037292 _12_ RTR  --- 0 AODV 48 [0 ffffffff a 800] ------- [10:255 -1:255 29 0] [0x2 2 1 [18 0] [0 4]] (REQUEST)
r 0.003037369 _6_ RTR  --- 0 AODV 48 [0 ffffffff a 800] ------- [10:255 -1:255 29 0] [0x2 2 1 [18 0] [0 4]] (REQUEST)
r 0.003037604 _19_ RTR  --- 0 AODV 48 [0 ffffffff a 800] ------- [10:255 -1:255 29 0] [0x2 2 1 [18 0] [0 4]] (REQUEST)
r 0.003037621 _22_ RTR  --- 0 AODV 48 [0 ffffffff a 800] ------- [10:255 -1:255 29 0] [0x2 2 1 [18 0] [0 4]] (REQUEST)
r 0.003037707 _11_ RTR  --- 0 AODV 48 [0 ffffffff a 800] ------- [10:255 -1:255 29 0] [0x2 2 1 [18 0] [0 4]] (REQUEST)
r 0.003037948 _13_ RTR  --- 0 AODV 48 [0 ffffffff a 800] ------- [10:255 -1:255 29 0] [0x2 2 1 [18 0] [0 4]] (REQUEST)
r 0.003038273 _20_ RTR  --- 0 AODV 48 [0 ffffffff a 800] ------- [10:255 -1:255 29 0] [0x2 2 1 [18 0] [0 4]] (REQUEST)
r 0.003038307 _21_ RTR  --- 0 AODV 48 [0 ffffffff a 800] ------- [10:255 -1:255 29 0] [0x2 2 1 [18 0] [0 4]] (REQUEST)
r 0.003039666 _1_ RTR  --- 0 AODV 48 [0 ffffffff a 800] ------- [10:255 -1:255 29 0] [0x2 2 1 [18 0] [0 4]] (REQUEST)
s 0.003121843 _0_ MAC  --- 0 RTS 44 [52e 12 0 0] 
r 0.003474376 _18_ MAC  --- 0 RTS 44 [52e 12 0 0] 
s 0.003484376 _18_ MAC  --- 0 CTS 38 [3f4 0 0 0] 
r 0.003788909 _0_ MAC  --- 0 CTS 38 [3f4 0 0 0] 
s 0.003798909 _0_ MAC  --- 0 ARP 86 [13a 12 0 806] ------- [REPLY 0/0 18/18]
s 0.004011922 _4_ RTR  --- 0 AODV 48 [0 ffffffff a 800] ------- [4:255 -1:255 28 0] [0x2 3 1 [18 0] [0 4]] (REQUEST)
s 0.004100959 _21_ RTR  --- 0 AODV 48 [0 ffffffff 0 800] ------- [21:255 -1:255 29 0] [0x2 2 1 [18 0] [0 4]] (REQUEST)
r 0.004487442 _18_ MAC  --- 0 ARP 28 [13a 12 0 806] ------- [REPLY 0/0 18/18]
s 0.004497442 _18_ MAC  --- 0 ACK 38 [0 0 0 0] 
s 0.004554651 _22_ RTR  --- 0 AODV 48 [0 ffffffff 0 800] ------- [22:255 -1:255 29 0] [0x2 2 1 [18 0] [0 4]] (REQUEST)
r 0.004801975 _0_ MAC  --- 0 ACK 38 [0 0 0 0] 
s 0.004872754 _7_ MAC  --- 0 AODV 106 [0 ffffffff 7 800] ------- [7:255 -1:255 29 0] [0x2 2 1 [18 0] [0 4]] (REQUEST)
r 0.005721115 _8_ MAC  --- 0 AODV 48 [0 ffffffff 7 800] ------- [7:255 -1:255 29 0] [0x2 2 1 [18 0] [0 4]] (REQUEST)
r 0.005721214 _14_ MAC  --- 0 AODV 48 [0 ffffffff 7 800] ------- [7:255 -1:255 29 0] [0x2 2 1 [18 0] [0 4]] (REQUEST)
r 0.005721233 _6_ MAC  --- 0 AODV 48 [0 ffffffff 7 800] ------- [7:255 -1:255 29 0] [0x2 2 1 [18 0] [0 4]] (REQUEST)
r 0.005721250 _5_ MAC  --- 0 AODV 48 [0 ffffffff 7 800] ------- [7:255 -1:255 29 0] [0x2 2 1 [18 0] [0 4]] (REQUEST)
r 0.005721297 _4_ MAC  --- 0 AODV 48 [0 ffffffff 7 800] ------- [7:255 -1:255 29 0] [0x2 2 1 [18 0] [0 4]] (REQUEST)
r 0.005721525 _9_ MAC  --- 0 AODV 48 [0 ffffffff 7 800] ------- [7:255 -1:255 29 0] [0x2 2 1 [18 0] [0 4]] (REQUEST)
r 0.005721526 _12_ MAC  --- 0 AODV 48 [0 ffffffff 7 800] ------- [7:255 -1:255 29 0] [0x2 2 1 [18 0] [0 4]] (REQUEST)
r 0.005721551 _0_ MAC  --- 0 AODV 48 [0 ffffffff 7 800] ------- [7:255 -1:255 29 0] [0x2 2 1 [18 0] [0 4]] (REQUEST)
r 0.005721600 _11_ MAC  --- 0 AODV 48 [0 ffffffff 7 800] ------- [7:255 -1:255 29 0] [0x2 2 1 [18 0] [0 4]] (REQUEST)
r 0.005721692 _2_ MAC  --- 0 AODV 48 [0 ffffffff 7 800] ------- [7:255 -1:255 29 0] [0x2 2 1 [18 0] [0 4]] (REQUEST)
r 0.005721721 _3_ MAC  --- 0 AODV 48 [0 ffffffff 7 800] ------- [7:255 -1:255 29 0] [0x2 2 1 [18 0] [0 4]] (REQUEST)
r 0.005721761 _15_ MAC  --- 0 AODV 48 [0 ffffffff 7 800] ------- [7:255 -1:255 29 0] [0x2 2 1 [18 0] [0 4]] (REQUEST)
r 0.005721948 _10_ MAC  --- 0 AODV 48 [0 ffffffff 7 800] ------- [7:255 -1:255 29 0] [0x2 2 1 [18 0] [0 4]] (REQUEST)
r 0.005721995 _13_ MAC  --- 0 AODV 48 [0 ffffffff 7 800] ------- [7:255 -1:255 29 0] [0x2 2 1 [18 0] [0 4]] (REQUEST)
r 0.005722014 _19_ MAC  --- 0 AODV 48 [0 ffffffff 7 800] ------- [7:255 -1:255 29 0] [0x2 2 1 [18 0] [0 4]] (REQUEST)
r 0.005722067 _18_ MAC  --- 0 AODV 48 [0 ffffffff 7 800] ------- [7:255 -1:255 29 0] [0x2 2 1 [18 0] [0 4]] (REQUEST)
r 0.005722162 _16_ MAC  --- 0 AODV 48 [0 ffffffff 7 800] ------- [7:255 -1:255 29 0] [0x2 2 1 [18 0] [0 4]] (REQUEST)
r 0.005722176 _17_ MAC  --- 0 AODV 48 [0 ffffffff 7 800] ------- [7:255 -1:255 29 0] [0x2 2 1 [18 0] [0 4]] (REQUEST)
r 0.005722309 _22_ MAC  --- 0 AODV 48 [0 ffffffff 7 800] ------- [7:255 -1:255 29 0] [0x2 2 1 [18 0] [0 4]] (REQUEST)
r 0.005722487 _20_ MAC  --- 0 AODV 48 [0 ffffffff 7 800] ------- [7:255 -1:255 29 0] [0x2 2 1 [18 0] [0 4]] (REQUEST)
r 0.005722778 _21_ MAC  --- 0 AODV 48 [0 ffffffff 7 800] ------- [7:255 -1:255 29 0] [0x2 2 1 [18 0] [0 4]] (REQUEST)
r 0.005724592 _1_ MAC  --- 0 AODV 48 [0 ffffffff 7 800] ------- [7:255 -1:255 29 0] [0x2 2 1 [18 0] [0 4]] (REQUEST)
r 0.005746115 _8_ RTR  --- 0 AODV 48 [0 ffffffff 7 800] ------- [7:255 -1:255 29 0] [0x2 2 1 [18 0] [0 4]] (REQUEST)
r 0.005746214 _14_ RTR  --- 0 AODV 48 [0 ffffffff 7 800] ------- [7:255 -1:255 29 0] [0x2 2 1 [18 0] [0 4]] (REQUEST)
r 0.005746233 _6_ RTR  --- 0 AODV 48 [0 ffffffff 7 800] ------- [7:255 -1:255 29 0] [0x2 2 1 [18 0] [0 4]] (REQUEST)
r 0.005746250 _5_ RTR  --- 0 AODV 48 [0 ffffffff 7 800] ------- [7:255 -1:255 29 0] [0x2 2 1 [18 0] [0 4]] (REQUEST)
r 0.005746297 _4_ RTR  --- 0 AODV 48 [0 ffffffff 7 800] ------- [7:255 -1:255 29 0] [0x2 2 1 [18 0] [0 4]] (REQUEST)
r 0.005746525 _9_ RTR  --- 0 AODV 48 [0 ffffffff 7 800] ------- [7:255 -1:255 29 0] [0x2 2 1 [18 0] [0 4]] (REQUEST)
r 0.005746526 _12_ RTR  --- 0 AODV 48 [0 ffffffff 7 800] ------- [7:255 -1:255 29 0] [0x2 2 1 [18 0] [0 4]] (REQUEST)
r 0.005746551 _0_ RTR  --- 0 AODV 48 [0 ffffffff 7 800] ------- [7:255 -1:255 29 0] [0x2 2 1 [18 0] [0 4]] (REQUEST)
r 0.005746600 _11_ RTR  --- 0 AODV 48 [0 ffffffff 7 800] ------- [7:255 -1:255 29 0] [0x2 2 1 [18 0] [0 4]] (REQUEST)
r 0.005746692 _2_ RTR  --- 0 AODV 48 [0 ffffffff 7 800] ------- [7:255 -1:255 29 0] [0x2 2 1 [18 0] [0 4]] (REQUEST)
r 0.005746721 _3_ RTR  --- 0 AODV 48 [0 ffffffff 7 800] ------- [7:255 -1:255 29 0] [0x2 2 1 [18 0] [0 4]] (REQUEST)
r 0.005746761 _15_ RTR  --- 0 AODV 48 [0 ffffffff 7 800] ------- [7:255 -1:255 29 0] [0x2 2 1 [18 0] [0 4]] (REQUEST)
r 0.005746948 _10_ RTR  --- 0 AODV 48 [0 ffffffff 7 800] ------- [7:255 -1:255 29 0] [0x2 2 1 [18 0] [0 4]] (REQUEST)
r 0.005746995 _13_ RTR  --- 0 AODV 48 [0 ffffffff 7 800] ------- [7:255 -1:255 29 0] [0x2 2 1 [18 0] [0 4]] (REQUEST)
r 0.005747014 _19_ RTR  --- 0 AODV 48 [0 ffffffff 7 800] ------- [7:255 -1:255 29 0] [0x2 2 1 [18 0] [0 4]] (REQUEST)
r 0.005747067 _18_ RTR  --- 0 AODV 48 [0 ffffffff 7 800] ------- [7:255 -1:255 29 0] [0x2 2 1 [18 0] [0 4]] (REQUEST)
r 0.005747162 _16_ RTR  --- 0 AODV 48 [0 ffffffff 7 800] ------- [7:255 -1:255 29 0] [0x2 2 1 [18 0] [0 4]] (REQUEST)
r 0.005747176 _17_ RTR  --- 0 AODV 48 [0 ffffffff 7 800] ------- [7:255 -1:255 29 0] [0x2 2 1 [18 0] [0 4]] (REQUEST)
r 0.005747309 _22_ RTR  --- 0 AODV 48 [0 ffffffff 7 800] ------- [7:255 -1:255 29 0] [0x2 2 1 [18 0] [0 4]] (REQUEST)
r 0.005747487 _20_ RTR  --- 0 AODV 48 [0 ffffffff 7 800] ------- [7:255 -1:255 29 0] [0x2 2 1 [18 0] [0 4]] (REQUEST)
r 0.005747778 _21_ RTR  --- 0 AODV 48 [0 ffffffff 7 800] ------- [7:255 -1:255 29 0] [0x2 2 1 [18 0] [0 4]] (REQUEST)
r 0.005749592 _1_ RTR  --- 0 AODV 48 [0 ffffffff 7 800] ------- [7:255 -1:255 29 0] [0x2 2 1 [18 0] [0 4]] (REQUEST)
s 0.005831600 _11_ MAC  --- 0 AODV 106 [0 ffffffff b 800] ------- [11:255 -1:255 29 0] [0x2 2 1 [18 0] [0 4]] (REQUEST)
s 0.005832778 _21_ MAC  --- 0 AODV 106 [0 ffffffff 15 800] ------- [21:255 -1:255 29 0] [0x2 2 1 [18 0] [0 4]] (REQUEST)
D 0.005833378 _20_ MAC  COL 0 AODV 106 [0 ffffffff b 800] ------- [11:255 -1:255 29 0] [0x2 2 1 [18 0] [0 4]] (REQUEST)
D 0.005833493 _22_ MAC  COL 0 AODV 106 [0 ffffffff b 800] ------- [11:255 -1:255 29 0] [0x2 2 1 [18 0] [0 4]] (REQUEST)
D 0.005833549 _19_ MAC  COL 0 AODV 106 [0 ffffffff b 800] ------- [11:255 -1:255 29 0] [0x2 2 1 [18 0] [0 4]] (REQUEST)
D 0.005834248 _18_ MAC  COL 0 AODV 106 [0 ffffffff b 800] ------- [11:255 -1:255 29 0] [0x2 2 1 [18 0] [0 4]] (REQUEST)
D 0.005834269 _0_ MAC  COL 0 AODV 106 [0 ffffffff b 800] ------- [11:255 -1:255 29 0] [0x2 2 1 [18 0] [0 4]] (REQUEST)
D 0.005834529 _17_ MAC  COL 0 AODV 106 [0 ffffffff b 800] ------- [11:255 -1:255 29 0] [0x2 2 1 [18 0] [0 4]] (REQUEST)
D 0.005834711 _15_ MAC  COL 0 AODV 106 [0 ffffffff b 800] ------- [11:255 -1:255 29 0] [0x2 2 1 [18 0] [0 4]] (REQUEST)
D 0.005834788 _14_ MAC  COL 0 AODV 106 [0 ffffffff b 800] ------- [11:255 -1:255 29 0] [0x2 2 1 [18 0] [0 4]] (REQUEST)
D 0.005834977 _16_ MAC  COL 0 AODV 106 [0 ffffffff b 800] ------- [11:255 -1:255 29 0] [0x2 2 1 [18 0] [0 4]] (REQUEST)
D 0.005835007 _9_ MAC  COL 0 AODV 106 [0 ffffffff b 800] ------- [11:255 -1:255 29 0] [0x2 2 1 [18 0] [0 4]] (REQUEST)
D 0.005835354 _10_ MAC  COL 0 AODV 106 [0 ffffffff b 800] ------- [11:255 -1:255 29 0] [0x2 2 1 [18 0] [0 4]] (REQUEST)
D 0.005835582 _3_ MAC  COL 0 AODV 106 [0 ffffffff b 800] ------- [11:255 -1:255 29 0] [0x2 2 1 [18 0] [0 4]] (REQUEST)
D 0.005835733 _2_ MAC  COL 0 AODV 106 [0 ffffffff b 800] ------- [11:255 -1:255 29 0] [0x2 2 1 [18 0] [0 4]] (REQUEST)
s 0.005925165 _14_ RTR  --- 0 AODV 48 [0 ffffffff 0 800] ------- [14:255 -1:255 29 0] [0x2 2 1 [18 0] [0 4]] (REQUEST)
s 0.005931733 _19_ RTR  --- 0 AODV 48 [0 ffffffff 0 800] ------- [19:255 -1:255 29 0] [0x2 2 1 [18 0] [0 4]] (REQUEST)
s 0.006315588 _13_ RTR  --- 0 AODV 48 [0 ffffffff a 800] ------- [13:255 -1:255 28 0] [0x2 3 1 [18 0] [0 4]] (REQUEST)
r 0.006680097 _8_ MAC  --- 0 AODV 48 [0 ffffffff b 800] ------- [11:255 -1:255 29 0] [0x2 2 1 [18 0] [0 4]] (REQUEST)
r 0.006680131 _13_ MAC  --- 0 AODV 48 [0 ffffffff b 800] ------- [11:255 -1:255 29 0] [0x2 2 1 [18 0] [0 4]] (REQUEST)
r 0.006680261 _12_ MAC  --- 0 AODV 48 [0 ffffffff b 800] ------- [11:255 -1:255 29 0] [0x2 2 1 [18 0] [0 4]] (REQUEST)
r 0.006680287 _6_ MAC  --- 0 AODV 48 [0 ffffffff b 800] ------- [11:255 -1:255 29 0] [0x2 2 1 [18 0] [0 4]] (REQUEST)
r 0.006680445 _7_ MAC  --- 0 AODV 48 [0 ffffffff b 800] ------- [11:255 -1:255 29 0] [0x2 2 1 [18 0] [0 4]] (REQUEST)
r 0.006680725 _5_ MAC  --- 0 AODV 48 [0 ffffffff b 800] ------- [11:255 -1:255 29 0] [0x2 2 1 [18 0] [0 4]] (REQUEST)
r 0.006680985 _4_ MAC  --- 0 AODV 48 [0 ffffffff b 800] ------- [11:255 -1:255 29 0] [0x2 2 1 [18 0] [0 4]] (REQUEST)
D 0.006681378 _20_ MAC  COL 0 AODV 106 [0 ffffffff 15 800] ------- [21:255 -1:255 29 0] [0x2 2 1 [18 0] [0 4]] (REQUEST)
D 0.006681493 _22_ MAC  COL 0 AODV 106 [0 ffffffff 15 800] ------- [21:255 -1:255 29 0] [0x2 2 1 [18 0] [0 4]] (REQUEST)
D 0.006681549 _19_ MAC  COL 0 AODV 106 [0 ffffffff 15 800] ------- [21:255 -1:255 29 0] [0x2 2 1 [18 0] [0 4]] (REQUEST)
D 0.006682248 _18_ MAC  COL 0 AODV 106 [0 ffffffff 15 800] ------- [21:255 -1:255 29 0] [0x2 2 1 [18 0] [0 4]] (REQUEST)
D 0.006682269 _0_ MAC  COL 0 AODV 106 [0 ffffffff 15 800] ------- [21:255 -1:255 29 0] [0x2 2 1 [18 0] [0 4]] (REQUEST)
D 0.006682529 _17_ MAC  COL 0 AODV 106 [0 ffffffff 15 800] ------- [21:255 -1:255 29 0] [0x2 2 1 [18 0] [0 4]] (REQUEST)
D 0.006682711 _15_ MAC  COL 0 AODV 106 [0 ffffffff 15 800] ------- [21:255 -1:255 29 0] [0x2 2 1 [18 0] [0 4]] (REQUEST)
r 0.006682781 _1_ MAC  --- 0 AODV 48 [0 ffffffff 15 800] ------- [21:255 -1:255 29 0] [0x2 2 1 [18 0] [0 4]] (REQUEST)
D 0.006682788 _14_ MAC  COL 0 AODV 106 [0 ffffffff 15 800] ------- [21:255 -1:255 29 0] [0x2 2 1 [18 0] [0 4]] (REQUEST)
D 0.006682977 _16_ MAC  COL 0 AODV 106 [0 ffffffff 15 800] ------- [21:255 -1:255 29 0] [0x2 2 1 [18 0] [0 4]] (REQUEST)
D 0.006683007 _9_ MAC  COL 0 AODV 106 [0 ffffffff 15 800] ------- [21:255 -1:255 29 0] [0x2 2 1 [18 0] [0 4]] (REQUEST)
D 0.006683354 _10_ MAC  COL 0 AODV 106 [0 ffffffff 15 800] ------- [21:255 -1:255 29 0] [0x2 2 1 [18 0] [0 4]] (REQUEST)
D 0.006683582 _3_ MAC  COL 0 AODV 106 [0 ffffffff 15 800] ------- [21:255 -1:255 29 0] [0x2 2 1 [18 0] [0 4]] (REQUEST)
D 0.006683733 _2_ MAC  COL 0 AODV 106 [0 ffffffff 15 800] ------- [21:255 -1:255 29 0] [0x2 2 1 [18 0] [0 4]] (REQUEST)
r 0.006705097 _8_ RTR  --- 0 AODV 48 [0 ffffffff b 800] ------- [11:255 -1:255 29 0] [0x2 2 1 [18 0] [0 4]] (REQUEST)
r 0.006705131 _13_ RTR  --- 0 AODV 48 [0 ffffffff b 800] ------- [11:255 -1:255 29 0] [0x2 2 1 [18 0] [0 4]] (REQUEST)
r 0.006705261 _12_ RTR  --- 0 AODV 48 [0 ffffffff b 800] ------- [11:255 -1:255 29 0] [0x2 2 1 [18 0] [0 4]] (REQUEST)
r 0.006705287 _6_ RTR  --- 0 AODV 48 [0 ffffffff b 800] ------- [11:255 -1:255 29 0] [0x2 2 1 [18 0] [0 4]] (REQUEST)
r 0.006705445 _7_ RTR  --- 0 AODV 48 [0 ffffffff b 800] ------- [11:255 -1:255 29 0] [0x2 2 1 [18 0] [0 4]] (REQUEST)
r 0.006705725 _5_ RTR  --- 0 AODV 48 [0 ffffffff b 800] ------- [11:255 -1:255 29 0] [0x2 2 1 [18 0] [0 4]] (REQUEST)
r 0.006705985 _4_ RTR  --- 0 AODV 48 [0 ffffffff b 800] ------- [11:255 -1:255 29 0] [0x2 2 1 [18 0] [0 4]] (REQUEST)
r 0.006707781 _1_ RTR  --- 0 AODV 48 [0 ffffffff 15 800] ------- [21:255 -1:255 29 0] [0x2 2 1 [18 0] [0 4]] (REQUEST)
s 0.007256524 _8_ MAC  --- 0 AODV 106 [0 ffffffff 8 800] ------- [8:255 -1:255 29 0] [0x2 2 1 [18 0] [0 4]] (REQUEST)
r 0.008104884 _7_ MAC  --- 0 AODV 48 [0 ffffffff 8 800] ------- [8:255 -1:255 29 0] [0x2 2 1 [18 0] [0 4]] (REQUEST)
r 0.008104991 _6_ MAC  --- 0 AODV 48 [0 ffffffff 8 800] ------- [8:255 -1:255 29 0] [0x2 2 1 [18 0] [0 4]] (REQUEST)
r 0.008105022 _11_ MAC  --- 0 AODV 48 [0 ffffffff 8 800] ------- [8:255 -1:255 29 0] [0x2 2 1 [18 0] [0 4]] (REQUEST)
r 0.008105051 _12_ MAC  --- 0 AODV 48 [0 ffffffff 8 800] ------- [8:255 -1:255 29 0] [0x2 2 1 [18 0] [0 4]] (REQUEST)
r 0.008105229 _14_ MAC  --- 0 AODV 48 [0 ffffffff 8 800] ------- [8:255 -1:255 29 0] [0x2 2 1 [18 0] [0 4]] (REQUEST)
r 0.008105279 _5_ MAC  --- 0 AODV 48 [0 ffffffff 8 800] ------- [8:255 -1:255 29 0] [0x2 2 1 [18 0] [0 4]] (REQUEST)
r 0.008105310 _0_ MAC  --- 0 AODV 48 [0 ffffffff 8 800] ------- [8:255 -1:255 29 0] [0x2 2 1 [18 0] [0 4]] (REQUEST)
r 0.008105410 _13_ MAC  --- 0 AODV 48 [0 ffffffff 8 800] ------- [8:255 -1:255 29 0] [0x2 2 1 [18 0] [0 4]] (REQUEST)
r 0.008105427 _4_ MAC  --- 0 AODV 48 [0 ffffffff 8 800] ------- [8:255 -1:255 29 0] [0x2 2 1 [18 0] [0 4]] (REQUEST)
r 0.008105535 _19_ MAC  --- 0 AODV 48 [0 ffffffff 8 800] ------- [8:255 -1:255 29 0] [0x2 2 1 [18 0] [0 4]] (REQUEST)
r 0.008105569 _9_ MAC  --- 0 AODV 48 [0 ffffffff 8 800] ------- [8:255 -1:255 29 0] [0x2 2 1 [18 0] [0 4]] (REQUEST)
r 0.008105686 _15_ MAC  --- 0 AODV 48 [0 ffffffff 8 800] ------- [8:255 -1:255 29 0] [0x2 2 1 [18 0] [0 4]] (REQUEST)
r 0.008105792 _2_ MAC  --- 0 AODV 48 [0 ffffffff 8 800] ------- [8:255 -1:255 29 0] [0x2 2 1 [18 0] [0 4]] (REQUEST)
r 0.008105841 _18_ MAC  --- 0 AODV 48 [0 ffffffff 8 800] ------- [8:255 -1:255 29 0] [0x2 2 1 [18 0] [0 4]] (REQUEST)
r 0.008105849 _3_ MAC  --- 0 AODV 48 [0 ffffffff 8 800] ------- [8:255 -1:255 29 0] [0x2 2 1 [18 0] [0 4]] (REQUEST)
r 0.008105897 _22_ MAC  --- 0 AODV 48 [0 ffffffff 8 800] ------- [8:255 -1:255 29 0] [0x2 2 1 [18 0] [0 4]] (REQUEST)
r 0.008105924 _20_ MAC  --- 0 AODV 48 [0 ffffffff 8 800] ------- [8:255 -1:255 29 0] [0x2 2 1 [18 0] [0 4]] (REQUEST)
r 0.008106011 _10_ MAC  --- 0 AODV 48 [0 ffffffff 8 800] ------- [8:255 -1:255 29 0] [0x2 2 1 [18 0] [0 4]] (REQUEST)
r 0.008106016 _17_ MAC  --- 0 AODV 48 [0 ffffffff 8 800] ------- [8:255 -1:255 29 0] [0x2 2 1 [18 0] [0 4]] (REQUEST)
r 0.008106111 _16_ MAC  --- 0 AODV 48 [0 ffffffff 8 800] ------- [8:255 -1:255 29 0] [0x2 2 1 [18 0] [0 4]] (REQUEST)
r 0.008106270 _21_ MAC  --- 0 AODV 48 [0 ffffffff 8 800] ------- [8:255 -1:255 29 0] [0x2 2 1 [18 0] [0 4]] (REQUEST)
r 0.008108160 _1_ MAC  --- 0 AODV 48 [0 ffffffff 8 800] ------- [8:255 -1:255 29 0] [0x2 2 1 [18 0] [0 4]] (REQUEST)
r 0.008129884 _7_ RTR  --- 0 AODV 48 [0 ffffffff 8 800] ------- [8:255 -1:255 29 0] [0x2 2 1 [18 0] [0 4]] (REQUEST)
r 0.008129991 _6_ RTR  --- 0 AODV 48 [0 ffffffff 8 800] ------- [8:255 -1:255 29 0] [0x2 2 1 [18 0] [0 4]] (REQUEST)
r 0.008130022 _11_ RTR  --- 0 AODV 48 [0 ffffffff 8 800] ------- [8:255 -1:255 29 0] [0x2 2 1 [18 0] [0 4]] (REQUEST)
r 0.008130051 _12_ RTR  --- 0 AODV 48 [0 ffffffff 8 800] ------- [8:255 -1:255 29 0] [0x2 2 1 [18 0] [0 4]] (REQUEST)
r 0.008130229 _14_ RTR  --- 0 AODV 48 [0 ffffffff 8 800] ------- [8:255 -1:255 29 0] [0x2 2 1 [18 0] [0 4]] (REQUEST)
r 0.008130279 _5_ RTR  --- 0 AODV 48 [0 ffffffff 8 800] ------- [8:255 -1:255 29 0] [0x2 2 1 [18 0] [0 4]] (REQUEST)
r 0.008130310 _0_ RTR  --- 0 AODV 48 [0 ffffffff 8 800] ------- [8:255 -1:255 29 0] [0x2 2 1 [18 0] [0 4]] (REQUEST)
r 0.008130410 _13_ RTR  --- 0 AODV 48 [0 ffffffff 8 800] ------- [8:255 -1:255 29 0] [0x2 2 1 [18 0] [0 4]] (REQUEST)
r 0.008130427 _4_ RTR  --- 0 AODV 48 [0 ffffffff 8 800] ------- [8:255 -1:255 29 0] [0x2 2 1 [18 0] [0 4]] (REQUEST)
r 0.008130535 _19_ RTR  --- 0 AODV 48 [0 ffffffff 8 800] ------- [8:255 -1:255 29 0] [0x2 2 1 [18 0] [0 4]] (REQUEST)
r 0.008130569 _9_ RTR  --- 0 AODV 48 [0 ffffffff 8 800] ------- [8:255 -1:255 29 0] [0x2 2 1 [18 0] [0 4]] (REQUEST)
r 0.008130686 _15_ RTR  --- 0 AODV 48 [0 ffffffff 8 800] ------- [8:255 -1:255 29 0] [0x2 2 1 [18 0] [0 4]] (REQUEST)
r 0.008130792 _2_ RTR  --- 0 AODV 48 [0 ffffffff 8 800] ------- [8:255 -1:255 29 0] [0x2 2 1 [18 0] [0 4]] (REQUEST)
r 0.008130841 _18_ RTR  --- 0 AODV 48 [0 ffffffff 8 800] ------- [8:255 -1:255 29 0] [0x2 2 1 [18 0] [0 4]] (REQUEST)
r 0.008130849 _3_ RTR  --- 0 AODV 48 [0 ffffffff 8 800] ------- [8:255 -1:255 29 0] [0x2 2 1 [18 0] [0 4]] (REQUEST)
r 0.008130897 _22_ RTR  --- 0 AODV 48 [0 ffffffff 8 800] ------- [8:255 -1:255 29 0] [0x2 2 1 [18 0] [0 4]] (REQUEST)